HEADER
"PSFversion" "1.00"
"I4n" "INV"
"PM1n PM0n" "gpdk090_pmos1v_spectre"
"NM1n NM0n" "gpdk090_nmos1v_spectre"
