HEADER
"PSFversion" "1.00"
"design" "(\"project_lib\" \"Adder_Test\" \"schematic\" \"\")"
"simulator" "spectre"
"temperature" "27"
"host" ""
"date" "Feb 27 18:12:01 2017"
"title" ""
"analysisList" "()"
END
