HEADER
"PSFversion" "1.00"
"Time Stamp" "Feb 27 18:12:01 2017"
TYPE
"variable" STRUCT(
"value" FLOAT DOUBLE
) PROP( "key" "element" )
VALUE
"temp" "variable" ( 27 ) PROP( )
END
