HEADER
"PSFversion" "1.00"
"I26n I28n I38n I36n I72n I30n I32n I34n I1n I0n" "INV"
"I67n" "NAND"
"I45n I44n I42n I43n I61n I64n I63n I58n I59n I66n I62n I65n I60n" "NOR"
"I68n" "NANDx3"
"I69n" "NANDx4"
"I70n I71n" "NANDx5"
"A0v" ":1v"
"A1v" ":2v"
"A2v" ":3v"
"A3v" ":4v"
"A4v" ":5v"
"B0v" ":6v"
"B1v" ":7v"
"B2v" ":8v"
"B3v" ":9v"
"B4v" ":10v"
"GNDv" ":11v"
"OUTv" ":12v"
"VDDv" ":13v"
