HEADER
"PSFversion" "1.00"
"I26n I28n I38n I36n I30n I32n I34n I1n I0n" "INV"
"I47n I29n I27n I37n I39n I10n I9n I35n I31n I33n" "AND"
"I45n I44n I42n I43n" "NOR"
"I48n" "ANDx3"
"I49n" "ANDx4"
"I50n" "ANDx5"
"I51n" "ORx5"
"A0v" ":1v"
"A1v" ":2v"
"A2v" ":3v"
"A3v" ":4v"
"A4v" ":5v"
"B0v" ":6v"
"B1v" ":7v"
"B2v" ":8v"
"B3v" ":9v"
"B4v" ":10v"
"GNDv" ":11v"
"OUTv" ":12v"
"VDDv" ":13v"
