HEADER
"PSFversion" "1.00"
"PM3n PM2n PM1n PM0n" "gpdk090_pmos1v_spectre"
"NM3n NM2n NM0n NM1n" "gpdk090_nmos1v_spectre"
"Av" ":1v"
"Bv" ":2v"
"Cv" ":3v"
"Dv" ":4v"
"GNDv" ":5v"
"OUTv" ":6v"
"VDDv" ":7v"
