HEADER
"PSFversion" "1.00"
"PM4n PM3n PM2n PM1n PM0n" "gpdk090_pmos1v_spectre"
"NM4n NM3n NM1n NM2n NM0n" "gpdk090_nmos1v_spectre"
"Av" ":1v"
"Bv" ":2v"
"Cv" ":3v"
"Dv" ":4v"
"Ev" ":5v"
"GNDv" ":6v"
"OUTv" ":7v"
"VDDv" ":8v"
