HEADER
"PSFversion" "1.00"
"NM0n NM1n" "gpdk090_nmos1v_spectre"
"PM0n PM1n" "gpdk090_pmos1v_spectre"
"Av" ":1v"
"Bv" ":2v"
"GNDv" ":3v"
"OUTv" ":4v"
"VDDv" ":5v"
