HEADER
"PSFversion" "1.00"
"I3n" "COMPARATOR_S"
