HEADER
"PSFversion" "1.00"
"Run Generator" "drlRun rev. 1.0"
"Run Time Stamp" "Mar  5 16:39:00 2017"
"simulator" "spectre"
"date" "Mar  5 16:39:00 2017"
"tranSST2Data" "TRUE"
"netlistDir" "../netlist"
TYPE
"runObject" STRUCT(
"logName" ARRAY( * ) STRING *
"parent" STRING *
"sweepVariable" ARRAY( * ) STRING *
) PROP( "key" "runObject" )
VALUE
"Run1" "runObject" (
(
"logFile"
"artistLogFile"
)
""
()
)
END
