HEADER
"PSFversion" "1.00"
"design" "(\"project_lib\" \"TEST_COMPARATOR\" \"schematic\" \"\")"
"simulator" "spectre"
"temperature" "27"
"host" ""
"date" "Mar  7 18:41:37 2017"
"title" ""
"analysisList" "()"
END
