HEADER
"PSFversion" "1.00"
"simulator" "spectre"
"version" "7.1.1.071"
"date" "6:41:39 PM, Tue Mar 7, 2017"
"design" "// Generated for: spectre"
"analysis type" "info.subckts"
"analysis name" "subckts"
"analysis description" "Circuit Information"
"xVecSorted" "unsorted"
"tolerance.relative" 0.00100000
TYPE
"subckt" STRUCT(
"subckt_params" STRING *
"subckt_terminals" STRING *
) PROP(
"key" "sub"
)
VALUE
"gpdk090_ndio" "subckt" (
""
""
)
"NAND" "subckt" (
""
"A B GND OUT VDD"
)
"gpdk090_ndio_na25" "subckt" (
""
""
)
"NANDx5" "subckt" (
""
"A B C D E GND OUT VDD"
)
"gpdk090_nwdio" "subckt" (
""
""
)
"NOR" "subckt" (
""
"A B GND OUT VDD"
)
"ressnpoly" "subckt" (
""
""
)
"COMPARATOR_S" "subckt" (
""
"A0 A1 A2 A3 A4 B0 B1 B2 B3 B4 GND OUT VDD"
)
"gpdk090_nmos1v_iso" "subckt" (
""
""
)
"resnwoxide" "subckt" (
""
""
)
"resnwsti" "subckt" (
""
""
)
"resnspdiff" "subckt" (
""
""
)
"ressndiff" "subckt" (
""
""
)
"resnsnpoly" "subckt" (
""
""
)
"resspdiff" "subckt" (
""
""
)
"INV" "subckt" (
""
"GND VDD Vin Vout"
)
"gpdk090_ndio_25" "subckt" (
""
""
)
"gpdk090_pdio_25" "subckt" (
""
""
)
"gpdk090_pdio_hvt" "subckt" (
""
""
)
"gpdk090_resnsndiff" "subckt" (
""
""
)
"NANDx3" "subckt" (
""
"A B C GND OUT VDD"
)
"gpdk090_ndio_na" "subckt" (
""
""
)
"gpdk090_ndio_hvt" "subckt" (
""
""
)
"NANDx4" "subckt" (
""
"A B C D GND OUT VDD"
)
"resnsppoly" "subckt" (
""
""
)
"gpdk090_pdio" "subckt" (
""
""
)
"ressppoly" "subckt" (
""
""
)
END
