HEADER
"PSFversion" "1.00"
"Time Stamp" "Mar  7 18:41:37 2017"
TYPE
"variable" STRUCT(
"value" FLOAT DOUBLE
) PROP( "key" "element" )
VALUE
"temp" "variable" ( 27 ) PROP( )
END
