HEADER
"PSFversion" "1.00"
"design" "(\"project_lib\" \"TEST_ABS\" \"schematic\" \"\")"
"simulator" "spectre"
"temperature" "27"
"host" ""
"date" "Mar  5 17:23:46 2017"
"title" ""
"analysisList" "()"
END
