HEADER
"PSFversion" "1.00"
"design" "(\"project_lib\" \"INV\" \"schematic\" \"\")"
"simulator" "spectre"
"temperature" "27"
"host" ""
"date" "Feb 24 17:26:53 2017"
"title" ""
"analysisList" "()"
END
