HEADER
"PSFversion" "1.00"
"Time Stamp" "Feb 24 17:26:53 2017"
TYPE
"variable" STRUCT(
"value" FLOAT DOUBLE
) PROP( "key" "element" )
VALUE
"Vin" "variable" ( 1 ) PROP( )
"GND" "variable" ( 0 ) PROP( )
"VDD" "variable" ( 1 ) PROP( )
"temp" "variable" ( 27 ) PROP( )
END
