HEADER
"PSFversion" "1.00"
"Time Stamp" "Mar  2 18:30:17 2017"
TYPE
"variable" STRUCT(
"value" FLOAT DOUBLE
) PROP( "key" "element" )
VALUE
"temp" "variable" ( 27 ) PROP( )
END
