HEADER
"PSFversion" "1.00"
"I0n" "FAdder"
"V6n VCinn" "analogLib_vpulse_spectre"
