HEADER
"PSFversion" "1.00"
"design" "(\"project_lib\" \"TEST_Adder_5bit\" \"schematic\" \"\")"
"simulator" "spectre"
"temperature" "27"
"host" ""
"date" "Mar  5 17:39:22 2017"
"title" ""
"analysisList" "()"
END
