HEADER
"PSFversion" "1.00"
"I0n I1n I2n I3n I4n" "FAdder"
"I12n I28n I29n I23n" "INV"
