HEADER
"PSFversion" "1.00"
"__NEXT_FILE__" "TEST_Adder_5bit"
