HEADER
"PSFversion" "1.00"
"I0n" "INV_5bit"
"I1n" "MUX_5bit"
"I2n" "Adder_5bit"
"A0v" ":1v"
"A1v" ":2v"
"A2v" ":3v"
"A3v" ":4v"
"A4v" ":5v"
"A5v" ":6v"
"GNDv" ":7v"
"OUT0v" ":8v"
"OUT1v" ":9v"
"OUT2v" ":10v"
"OUT3v" ":11v"
"OUT4v" ":12v"
"VDDv" ":13v"
