HEADER
"PSFversion" "1.00"
"I4n I3n I2n I1n I0n" "FAdder"
"I23n I29n I28n I12n" "INV"
"A0v" ":1v"
"A1v" ":2v"
"A2v" ":3v"
"A3v" ":4v"
"A4v" ":5v"
"B0v" ":6v"
"B1v" ":7v"
"B2v" ":8v"
"B3v" ":9v"
"B4v" ":10v"
"Cinv" ":11v"
"Coutv" ":12v"
"GNDv" ":13v"
"S0v" ":14v"
"S1v" ":15v"
"S2v" ":16v"
"S3v" ":17v"
"S4v" ":18v"
"VDDv" ":19v"
