HEADER
"PSFversion" "1.00"
"I4n I3n I2n I1n I0n" "INV"
"GNDv" ":1v"
"VDDv" ":2v"
"Vin0v" ":3v"
"Vin1v" ":4v"
"Vin2v" ":5v"
"Vin3v" ":6v"
"Vin4v" ":7v"
"Vout0v" ":8v"
"Vout1v" ":9v"
"Vout2v" ":10v"
"Vout3v" ":11v"
"Vout4v" ":12v"
