HEADER
"PSFversion" "1.00"
"PM1n PM0n" "gpdk090_pmos1v_spectre"
"NM1n NM0n" "gpdk090_nmos1v_spectre"
"I2n" "INV"
"Av" ":1v"
"Bv" ":2v"
"GNDv" ":3v"
"OUTv" ":4v"
"Sv" ":5v"
"VDDv" ":6v"
