HEADER
"PSFversion" "1.00"
"I4n I3n I2n I1n I0n" "MUX_1bit"
"A0v" ":1v"
"A1v" ":2v"
"A2v" ":3v"
"A3v" ":4v"
"A4v" ":5v"
"B0v" ":6v"
"B1v" ":7v"
"B2v" ":8v"
"B3v" ":9v"
"B4v" ":10v"
"GNDv" ":11v"
"OUT0v" ":12v"
"OUT1v" ":13v"
"OUT2v" ":14v"
"OUT3v" ":15v"
"OUT4v" ":16v"
"Sv" ":17v"
"VDDv" ":18v"
