HEADER
"PSFversion" "1.00"
"I0n" "INV_5bit"
"I3n" "MUX_5bit"
"I4n" "Adder_5bit"
